# vtk DataFile Version 3.0
vtk output
ASCII
DATASET RECTILINEAR_GRID
DIMENSIONS 6 6 8
X_COORDINATES 6 double
0 1000 2000 3000 4000 5000 
Y_COORDINATES 6 double
0 800 1600 2400 3200 4000 
Z_COORDINATES 8 double
0 -0.3048 -300.305 -600.305 -900.305 -1200.3 -1800.3 -1800.61 
FIELD FieldData 1
Time 1 1 double
1999
CELL_DATA 175
FIELD FieldData 2
Block 1 175 double
21 22 23 24 25 16 17 18 19 
20 11 12 13 14 15 6 7 8 
9 10 1 2 3 4 5 46 47 
48 49 50 41 42 43 44 45 36 
37 38 39 40 31 32 33 34 35 
26 27 28 29 30 71 72 73 74 
75 66 67 68 69 70 61 62 63 
64 65 56 57 58 59 60 51 52 
53 54 55 96 97 98 99 100 91 
92 93 94 95 86 87 88 89 90 
81 82 83 84 85 76 77 78 79 
80 121 122 123 124 125 116 117 118 
119 120 111 112 113 114 115 106 107 
108 109 110 101 102 103 104 105 146 
147 148 149 150 141 142 143 144 145 
136 137 138 139 140 131 132 133 134 
135 126 127 128 129 130 171 172 173 
174 175 166 167 168 169 170 161 162 
163 164 165 156 157 158 159 160 151 
152 153 154 155 
Block_Name 1 175 string
This%20is%20block%2021.
This%20is%20block%2022.
This%20is%20block%2023.
This%20is%20block%2024.
This%20is%20block%2025.
This%20is%20block%2016.
This%20is%20block%2017.
This%20is%20block%2018.
This%20is%20block%2019.
This%20is%20block%2020.
This%20is%20block%2011.
This%20is%20block%2012.
This%20is%20block%2013.
This%20is%20block%2014.
This%20is%20block%2015.
This%20is%20block%206.
This%20is%20block%207.
This%20is%20block%208.
This%20is%20block%209.
This%20is%20block%2010.
This%20is%20block%201.
This%20is%20block%202.
This%20is%20block%203.
This%20is%20block%204.
This%20is%20block%205.
This%20is%20block%2046.
This%20is%20block%2047.
This%20is%20block%2048.
This%20is%20block%2049.
This%20is%20block%2050.
This%20is%20block%2041.
This%20is%20block%2042.
This%20is%20block%2043.
This%20is%20block%2044.
This%20is%20block%2045.
This%20is%20block%2036.
This%20is%20block%2037.
This%20is%20block%2038.
This%20is%20block%2039.
This%20is%20block%2040.
This%20is%20block%2031.
This%20is%20block%2032.
This%20is%20block%2033.
This%20is%20block%2034.
This%20is%20block%2035.
This%20is%20block%2026.
This%20is%20block%2027.
This%20is%20block%2028.
This%20is%20block%2029.
This%20is%20block%2030.
This%20is%20block%2071.
This%20is%20block%2072.
This%20is%20block%2073.
This%20is%20block%2074.
This%20is%20block%2075.
This%20is%20block%2066.
This%20is%20block%2067.
This%20is%20block%2068.
This%20is%20block%2069.
This%20is%20block%2070.
This%20is%20block%2061.
This%20is%20block%2062.
This%20is%20block%2063.
This%20is%20block%2064.
This%20is%20block%2065.
This%20is%20block%2056.
This%20is%20block%2057.
This%20is%20block%2058.
This%20is%20block%2059.
This%20is%20block%2060.
This%20is%20block%2051.
This%20is%20block%2052.
This%20is%20block%2053.
This%20is%20block%2054.
This%20is%20block%2055.
This%20is%20block%2096.
This%20is%20block%2097.
This%20is%20block%2098.
This%20is%20block%2099.
This%20is%20block%20100.
This%20is%20block%2091.
This%20is%20block%2092.
This%20is%20block%2093.
This%20is%20block%2094.
This%20is%20block%2095.
This%20is%20block%2086.
This%20is%20block%2087.
This%20is%20block%2088.
This%20is%20block%2089.
This%20is%20block%2090.
This%20is%20block%2081.
This%20is%20block%2082.
This%20is%20block%2083.
This%20is%20block%2084.
This%20is%20block%2085.
This%20is%20block%2076.
This%20is%20block%2077.
This%20is%20block%2078.
This%20is%20block%2079.
This%20is%20block%2080.
This%20is%20block%20121.
This%20is%20block%20122.
This%20is%20block%20123.
This%20is%20block%20124.
This%20is%20block%20125.
This%20is%20block%20116.
This%20is%20block%20117.
This%20is%20block%20118.
This%20is%20block%20119.
This%20is%20block%20120.
This%20is%20block%20111.
This%20is%20block%20112.
This%20is%20block%20113.
This%20is%20block%20114.
This%20is%20block%20115.
This%20is%20block%20106.
This%20is%20block%20107.
This%20is%20block%20108.
This%20is%20block%20109.
This%20is%20block%20110.
This%20is%20block%20101.
This%20is%20block%20102.
This%20is%20block%20103.
This%20is%20block%20104.
This%20is%20block%20105.
This%20is%20block%20146.
This%20is%20block%20147.
This%20is%20block%20148.
This%20is%20block%20149.
This%20is%20block%20150.
This%20is%20block%20141.
This%20is%20block%20142.
This%20is%20block%20143.
This%20is%20block%20144.
This%20is%20block%20145.
This%20is%20block%20136.
This%20is%20block%20137.
This%20is%20block%20138.
This%20is%20block%20139.
This%20is%20block%20140.
This%20is%20block%20131.
This%20is%20block%20132.
This%20is%20block%20133.
This%20is%20block%20134.
This%20is%20block%20135.
This%20is%20block%20126.
This%20is%20block%20127.
This%20is%20block%20128.
This%20is%20block%20129.
This%20is%20block%20130.
This%20is%20block%20171.
This%20is%20block%20172.
This%20is%20block%20173.
This%20is%20block%20174.
This%20is%20block%20175.
This%20is%20block%20166.
This%20is%20block%20167.
This%20is%20block%20168.
This%20is%20block%20169.
This%20is%20block%20170.
This%20is%20block%20161.
This%20is%20block%20162.
This%20is%20block%20163.
This%20is%20block%20164.
This%20is%20block%20165.
This%20is%20block%20156.
This%20is%20block%20157.
This%20is%20block%20158.
This%20is%20block%20159.
This%20is%20block%20160.
This%20is%20block%20151.
This%20is%20block%20152.
This%20is%20block%20153.
This%20is%20block%20154.
This%20is%20block%20155.

